Water STO-3G HF density test fixture
    1    1    0
    3
    8    1    1
    0    1
Number of atoms                            I                3
Number of electrons                         I                10
Number of alpha electrons                   I                5
Number of basis functions                   I                7
Number of shells                            I                5
Atomic numbers                             I   N=           3
           8           1           1
Current cartesian coordinates              R   N=           9
  0.000000   0.000000   0.117000  -0.757000   0.000000  -0.468000
   0.757000   0.000000  -0.468000
Shell types                                I   N=           5
           0           0           1           0           0
Number of primitives per shell             I   N=           5
           3           3           3           3           3
Shell to atom map                          I   N=           5
           1           1           1           2           3
Primitive exponents                        R   N=          15
 1.307093200E+02 2.380886100E+01 6.443608300E+00 5.033151300E+00 1.169596100E+00
 3.803890000E-01 5.033151300E+00 1.169596100E+00 3.803890000E-01 3.425250900E+00
 6.239133000E-01 1.688554000E-01 3.425250900E+00 6.239133000E-01 1.688554000E-01
Contraction coefficients                   R   N=          15
 1.543289673E-01 5.353281423E-01 4.446345423E-01 -9.996722919E-02 3.995128265E-01
 7.001154688E-01 1.559162750E-01 6.076837186E-01 3.919574241E-01 1.543289673E-01
 5.353281423E-01 4.446345423E-01 1.543289673E-01 5.353281423E-01 4.446345423E-01
Total SCF Density                          R   N=          28
 2.050000E+00 1.200000E-01 3.100000E-02 1.800000E+00 5.000000E-02 4.200000E-02
 1.500000E+00 8.000000E-03 1.100000E-02 6.000000E-03 1.900000E+00 4.000000E-02
 3.000000E-02 1.600000E+00 2.000000E-02 1.400000E+00 1.000000E-02 1.300000E+00
 5.000000E-03 1.100000E+00 8.000000E-03 9.000000E-01 4.000000E-03 8.000000E-01
 2.000000E-03 7.000000E-01 1.000000E-03 6.000000E-01
Alpha Orbital Energies                     R   N=           7
-1.900000E+01 -9.800000E-01 -5.200000E-01 -4.100000E-01 -3.300000E-01  2.100000E-01  4.800000E-01
Alpha MO coefficients                      R   N=          49
 1.000000E+00 0.000000E+00 0.000000E+00 0.000000E+00 0.000000E+00 0.000000E+00 0.000000E+00
 0.000000E+00 1.000000E+00 0.000000E+00 0.000000E+00 0.000000E+00 0.000000E+00 0.000000E+00
 0.000000E+00 0.000000E+00 1.000000E+00 0.000000E+00 0.000000E+00 0.000000E+00 0.000000E+00
 0.000000E+00 0.000000E+00 0.000000E+00 1.000000E+00 0.000000E+00 0.000000E+00 0.000000E+00
 0.000000E+00 0.000000E+00 0.000000E+00 0.000000E+00 1.000000E+00 0.000000E+00 0.000000E+00
 0.000000E+00 0.000000E+00 0.000000E+00 0.000000E+00 0.000000E+00 1.000000E+00 0.000000E+00
 0.000000E+00 0.000000E+00 0.000000E+00 0.000000E+00 0.000000E+00 0.000000E+00 1.000000E+00
Vibrational frequencies                    R   N=           3
   1656.7   3832.4   3942.1
